 Gaussian 09, Revision A.01,
 Gaussian 09:  EM64L-G09RevA.01  8-May-2009

 ----------------------------------------
 # p blyp/sto-3g fchk=all nosymm pop=full
 ----------------------------------------

 create esp of adenine by running cubegen 0 potential Test.FChk rso.cub
 e -2 h
 ----------------------------------------------------------------------
 Symbolic Z-matrix:
 Charge =  0 Multiplicity = 1

                          Input orientation:
 ---------------------------------------------------------------------
 Center     Atomic      Atomic             Coordinates (Angstroms)
 Number     Number       Type             X           Y           Z
 ---------------------------------------------------------------------
      1          1           0        3.526400    1.316900    2.070200
      2          1           0        4.083400    0.964100    0.629700
      3          8           0        3.863600    1.732500    1.221900
 ---------------------------------------------------------------------

 SCF Done:  E(RB-LYP) =  -75.2862678880     A.U. after   11 cycles

 Alpha  occ. eigenvalues --  -18.48822  -0.81821  -0.36942  -0.16237  -0.06425
 Alpha virt. eigenvalues --    0.27187   0.37928

 Mulliken atomic charges:
              1
     1  H    0.159696
     2  H    0.163052
     3  O   -0.322748
 Sum of Mulliken atomic charges =   0.00000

 Dipole moment (field-independent basis, Debye):
    X=             -0.1453    Y=             -1.5213    Z=              0.3147  Tot=              1.5603
 Quadrupole moment (field-independent basis, Debye-Ang):
   XX=             -7.0362   YY=            -10.2729   ZZ=             -3.8783
   XY=             -6.1644   XZ=              0.4580   YZ=             -1.1804

 Normal termination of Gaussian 09 at Wed Jun 29 10:59:28 2016.
