 Gaussian 09, Revision A.01,
 Gaussian 09:  EM64L-G09RevA.01  8-May-2009

 ---------------------------------------
 # p blyp/6-31g fchk=all nosymm pop=full
 ---------------------------------------

 create esp of adenine by running cubegen 0 potential Test.FChk rso.cub
 e -2 h
 ----------------------------------------------------------------------
 Symbolic Z-matrix:
 Charge =  0 Multiplicity = 1

                          Input orientation:
 ---------------------------------------------------------------------
 Center     Atomic      Atomic             Coordinates (Angstroms)
 Number     Number       Type             X           Y           Z
 ---------------------------------------------------------------------
      1          1           0        3.526400    1.316900    2.070200
      2          1           0        4.083400    0.964100    0.629700
      3          8           0        3.863600    1.732500    1.221900
      4          8           0       -3.387600   -0.541100    1.841200
      5          1           0       -2.633500   -1.123800    1.981600
      6          1           0       -3.000500    0.310200    2.251500
      7          8           0       -2.475600   -3.605400   -1.485800
      8          1           0       -1.503900   -3.371300   -1.615900
      9          1           0       -2.899700   -2.827800   -1.904700
     10          8           0        1.816300    1.118200   -2.982500
     11          1           0        1.136100    1.742900   -2.595500
     12          1           0        2.500000    1.008500   -2.274200
     13          8           0       -3.554600    0.218600   -2.640200
     14          1           0       -3.073600    0.979900   -3.132900
     15          1           0       -2.745500   -0.169900   -2.055800
     16          1           0        1.533300   -0.366700    2.635200
     17          1           0        0.946700    0.946000    3.260300
     18          8           0        1.521900    0.200400    3.509000
     19          1           0        0.526700   -3.920400   -0.028100
     20          1           0        0.893100   -4.271000    1.546900
     21          8           0        0.707500   -3.597400    0.870000
     22          8           0        3.923100   -1.945200   -1.798800
     23          1           0        3.714200   -2.391900   -2.730600
     24          1           0        2.973200   -1.888500   -1.304700
     25          8           0        0.517800    4.064900    1.404500
     26          1           0        0.770400    3.255800    0.815200
     27          1           0        1.433700    4.599600    1.467500
     28          8           0       -3.018500    2.344700    0.083800
     29          1           0       -3.376000    3.190900   -0.377300
     30          1           0       -3.433100    2.170000    0.981300
 ---------------------------------------------------------------------

 SCF Done:  E(RB-LYP) =  -763.656561499     A.U. after   13 cycles

 Alpha  occ. eigenvalues --  -18.81756 -18.81538 -18.80186 -18.80095 -18.80019
 Alpha  occ. eigenvalues --  -18.79856 -18.79500 -18.79487 -18.79425 -18.78640
 Alpha  occ. eigenvalues --   -0.92986  -0.92763  -0.91869  -0.91848  -0.91668
 Alpha  occ. eigenvalues --   -0.91482  -0.89696  -0.89248  -0.89034  -0.88554
 Alpha  occ. eigenvalues --   -0.51073  -0.47512  -0.47392  -0.47080  -0.46902
 Alpha  occ. eigenvalues --   -0.45909  -0.45562  -0.45305  -0.44529  -0.43318
 Alpha  occ. eigenvalues --   -0.32271  -0.31205  -0.30846  -0.30742  -0.30623
 Alpha  occ. eigenvalues --   -0.30592  -0.30335  -0.30016  -0.29782  -0.28094
 Alpha  occ. eigenvalues --   -0.25356  -0.24802  -0.23983  -0.23788  -0.23767
 Alpha  occ. eigenvalues --   -0.23107  -0.23058  -0.22889  -0.22407  -0.21589
 Alpha virt. eigenvalues --   -0.04110  -0.02702  -0.02323  -0.01236  -0.00441
 Alpha virt. eigenvalues --    0.00499   0.01482   0.03251   0.03463   0.04522
 Alpha virt. eigenvalues --    0.06350   0.07418   0.07817   0.08984   0.09202

 Mulliken atomic charges:
              1
     1  H    0.334145
     2  H    0.339845
     3  O   -0.696958
     4  O   -0.647291
     5  H    0.337926
     6  H    0.315223
     7  O   -0.658847
     8  H    0.311109
     9  H    0.345769
    10  O   -0.678210
    11  H    0.335255
    12  H    0.337303
    13  O   -0.643983
    14  H    0.327847
    15  H    0.314757
    16  H    0.332926
    17  H    0.346135
    18  O   -0.655213
    19  H    0.354783
    20  H    0.367738
    21  O   -0.718991
    22  O   -0.660888
    23  H    0.341750
    24  H    0.322529
    25  O   -0.663505
    26  H    0.323968
    27  H    0.337092
    28  O   -0.701637
    29  H    0.350495
    30  H    0.348928
 Sum of Mulliken atomic charges =   0.00000

 Dipole moment (field-independent basis, Debye):
    X=              2.3039    Y=             -0.2055    Z=             -0.4766  Tot=              2.3617
 Quadrupole moment (field-independent basis, Debye-Ang):
   XX=           -103.3891   YY=            -55.5415   ZZ=            -75.2784
   XY=            -22.7764   XZ=             -6.0974   YZ=             -2.2335

 Normal termination of Gaussian 09 at Sun May 29 00:13:20 2016.
