 Gaussian 09, Revision A.01,
 Gaussian 09:  EM64L-G09RevA.01  8-May-2009

 ---------------------------------------
 # p blyp/6-31g fchk=all nosymm pop=full
 ---------------------------------------

 create esp of adenine by running cubegen 0 potential Test.FChk rso.cub
 e -2 h
 ----------------------------------------------------------------------
 Symbolic Z-matrix:
 Charge =  0 Multiplicity = 1

                          Input orientation:
 ---------------------------------------------------------------------
 Center     Atomic      Atomic             Coordinates (Angstroms)
 Number     Number       Type             X           Y           Z
 ---------------------------------------------------------------------
      1          1           0        3.526400    1.316900    2.070200
      2          1           0        4.083400    0.964100    0.629700
      3          8           0        3.863600    1.732500    1.221900
 ---------------------------------------------------------------------

 SCF Done:  E(RB-LYP) =  -76.3664835444     A.U. after   10 cycles

 Alpha  occ. eigenvalues --  -18.78447  -0.90156  -0.45676  -0.28988  -0.22143
 Alpha virt. eigenvalues --    0.01955   0.10427   0.74631   0.77638   0.83600
 Alpha virt. eigenvalues --    0.90242   1.00508   1.36262

 Mulliken atomic charges:
              1
     1  H    0.335449
     2  H    0.336299
     3  O   -0.671748
 Sum of Mulliken atomic charges =   0.00000

 Dipole moment (field-independent basis, Debye):
    X=             -0.2220    Y=             -2.2873    Z=              0.4824  Tot=              2.3481
 Quadrupole moment (field-independent basis, Debye-Ang):
   XX=             -8.5864   YY=            -13.4936   ZZ=             -3.5833
   XY=             -9.3010   XZ=              0.6268   YZ=             -1.6928

 Normal termination of Gaussian 09 at Thu Jun 23 15:13:38 2016.
